    1C
    1UUSER                                                              
    1UDATE              28.june.2026                                    
    1UTIME              09:54:31                                        
    1UHOST                                                              
    1UPGM               CalculiX                                        
    1UVERSION           Version 2.23                             
    1UCOMPILETIME       Sun Oct 19 18:23:34 CEST 2025                    
    1UDIR                                                               
    1UDBN                                                               
    1UMAT    1MAT_FR4                                                   
    1UMAT    2MAT_AL                                                    
    1UMAT    3MAT_TIM                                                   
    1UMAT    4MAT_SS316                                                 
    2C                          6552                                     1
 -1         1 0.00000E+00 0.00000E+00 1.00000E+02
 -1         2 0.00000E+00 0.00000E+00 0.00000E+00
 -1         3 0.00000E+00 1.61000E+00 1.00000E+02
 -1         4 0.00000E+00 1.61000E+00 0.00000E+00
 -1         5 3.00000E+02 0.00000E+00 0.00000E+00
 -1         6 3.00000E+02 0.00000E+00 1.00000E+02
 -1         7 1.58000E+02 0.00000E+00 1.10000E+01
 -1         8 1.58000E+02 0.00000E+00 2.50000E+01
 -1         9 1.72000E+02 0.00000E+00 2.50000E+01
 -1        10 1.72000E+02 0.00000E+00 1.10000E+01
 -1        11 3.70000E+01 0.00000E+00 4.20000E+01
 -1        12 3.70000E+01 0.00000E+00 5.80000E+01
 -1        13 5.30000E+01 0.00000E+00 5.80000E+01
 -1        14 5.30000E+01 0.00000E+00 4.20000E+01
 -1        15 6.60000E+01 0.00000E+00 4.40000E+01
 -1        16 6.60000E+01 0.00000E+00 5.60000E+01
 -1        17 7.80000E+01 0.00000E+00 5.60000E+01
 -1        18 7.80000E+01 0.00000E+00 4.40000E+01
 -1        19 8.80000E+01 0.00000E+00 3.80000E+01
 -1        20 8.80000E+01 0.00000E+00 6.20000E+01
 -1        21 1.12000E+02 0.00000E+00 6.20000E+01
 -1        22 1.12000E+02 0.00000E+00 3.80000E+01
 -1        23 1.23000E+02 0.00000E+00 4.30000E+01
 -1        24 1.23000E+02 0.00000E+00 5.70000E+01
 -1        25 1.37000E+02 0.00000E+00 5.70000E+01
 -1        26 1.37000E+02 0.00000E+00 4.30000E+01
 -1        27 1.49000E+02 0.00000E+00 4.40000E+01
 -1        28 1.49000E+02 0.00000E+00 5.60000E+01
 -1        29 1.61000E+02 0.00000E+00 5.60000E+01
 -1        30 1.61000E+02 0.00000E+00 4.40000E+01
 -1        31 1.68000E+02 0.00000E+00 3.80000E+01
 -1        32 1.68000E+02 0.00000E+00 6.20000E+01
 -1        33 1.92000E+02 0.00000E+00 6.20000E+01
 -1        34 1.92000E+02 0.00000E+00 3.80000E+01
 -1        35 1.98000E+02 0.00000E+00 4.10000E+01
 -1        36 1.98000E+02 0.00000E+00 5.90000E+01
 -1        37 2.22000E+02 0.00000E+00 5.90000E+01
 -1        38 2.22000E+02 0.00000E+00 4.10000E+01
 -1        39 2.28000E+02 0.00000E+00 4.10000E+01
 -1        40 2.28000E+02 0.00000E+00 5.90000E+01
 -1        41 2.50000E+02 0.00000E+00 5.90000E+01
 -1        42 2.50000E+02 0.00000E+00 7.50000E+01
 -1        43 2.80000E+02 0.00000E+00 7.50000E+01
 -1        44 2.80000E+02 0.00000E+00 4.50000E+01
 -1        45 2.52000E+02 0.00000E+00 4.50000E+01
 -1        46 2.52000E+02 0.00000E+00 4.10000E+01
 -1        47 2.82000E+02 0.00000E+00 4.20000E+01
 -1        48 2.82000E+02 0.00000E+00 5.80000E+01
 -1        49 2.98000E+02 0.00000E+00 5.80000E+01
 -1        50 2.98000E+02 0.00000E+00 4.20000E+01
 -1        51 3.00000E+02 1.61000E+00 1.00000E+02
 -1        52 3.00000E+02 1.61000E+00 0.00000E+00
 -1        53 1.58000E+02 1.61000E+00 1.10000E+01
 -1        54 1.58000E+02 1.61000E+00 2.50000E+01
 -1        55 1.72000E+02 1.61000E+00 2.50000E+01
 -1        56 1.72000E+02 1.61000E+00 1.10000E+01
 -1        57 3.70000E+01 1.61000E+00 4.20000E+01
 -1        58 3.70000E+01 1.61000E+00 5.80000E+01
 -1        59 5.30000E+01 1.61000E+00 5.80000E+01
 -1        60 5.30000E+01 1.61000E+00 4.20000E+01
 -1        61 6.60000E+01 1.61000E+00 4.40000E+01
 -1        62 6.60000E+01 1.61000E+00 5.60000E+01
 -1        63 7.80000E+01 1.61000E+00 5.60000E+01
 -1        64 7.80000E+01 1.61000E+00 4.40000E+01
 -1        65 8.80000E+01 1.61000E+00 3.80000E+01
 -1        66 8.80000E+01 1.61000E+00 6.20000E+01
 -1        67 1.12000E+02 1.61000E+00 6.20000E+01
 -1        68 1.12000E+02 1.61000E+00 3.80000E+01
 -1        69 1.23000E+02 1.61000E+00 4.30000E+01
 -1        70 1.23000E+02 1.61000E+00 5.70000E+01
 -1        71 1.37000E+02 1.61000E+00 5.70000E+01
 -1        72 1.37000E+02 1.61000E+00 4.30000E+01
 -1        73 1.49000E+02 1.61000E+00 4.40000E+01
 -1        74 1.49000E+02 1.61000E+00 5.60000E+01
 -1        75 1.61000E+02 1.61000E+00 5.60000E+01
 -1        76 1.61000E+02 1.61000E+00 4.40000E+01
 -1        77 1.68000E+02 1.61000E+00 3.80000E+01
 -1        78 1.68000E+02 1.61000E+00 6.20000E+01
 -1        79 1.92000E+02 1.61000E+00 6.20000E+01
 -1        80 1.92000E+02 1.61000E+00 3.80000E+01
 -1        81 1.98000E+02 1.61000E+00 4.10000E+01
 -1        82 1.98000E+02 1.61000E+00 5.90000E+01
 -1        83 2.22000E+02 1.61000E+00 5.90000E+01
 -1        84 2.22000E+02 1.61000E+00 4.10000E+01
 -1        85 2.28000E+02 1.61000E+00 4.10000E+01
 -1        86 2.28000E+02 1.61000E+00 5.90000E+01
 -1        87 2.50000E+02 1.61000E+00 5.90000E+01
 -1        88 2.50000E+02 1.61000E+00 7.50000E+01
 -1        89 2.80000E+02 1.61000E+00 7.50000E+01
 -1        90 2.80000E+02 1.61000E+00 4.50000E+01
 -1        91 2.52000E+02 1.61000E+00 4.50000E+01
 -1        92 2.52000E+02 1.61000E+00 4.10000E+01
 -1        93 2.82000E+02 1.61000E+00 4.20000E+01
 -1        94 2.82000E+02 1.61000E+00 5.80000E+01
 -1        95 2.98000E+02 1.61000E+00 5.80000E+01
 -1        96 2.98000E+02 1.61000E+00 4.20000E+01
 -1        97 2.50000E+02 0.00000E+00 4.50000E+01
 -1        98 2.50000E+02 1.61000E+00 4.50000E+01
 -1        99 2.52000E+02 0.00000E+00 5.90000E+01
 -1       100 2.52000E+02 1.61000E+00 5.90000E+01
 -1       101 0.00000E+00 9.61000E+00 1.00000E+02
 -1       102 0.00000E+00 9.61000E+00 0.00000E+00
 -1       103 3.00000E+02 9.61000E+00 1.00000E+02
 -1       104 3.00000E+02 9.61000E+00 0.00000E+00
 -1       105 0.00000E+00 9.86000E+00 1.00000E+02
 -1       106 0.00000E+00 9.86000E+00 0.00000E+00
 -1       107 3.00000E+02 9.86000E+00 1.00000E+02
 -1       108 3.00000E+02 9.86000E+00 0.00000E+00
 -1       109 0.00000E+00 1.98600E+01 1.00000E+02
 -1       110 0.00000E+00 1.98600E+01 0.00000E+00
 -1       111 3.00000E+02 1.98600E+01 1.00000E+02
 -1       112 3.00000E+02 1.98600E+01 0.00000E+00
 -1       113 0.00000E+00 0.00000E+00 5.88235E+00
 -1       114 0.00000E+00 0.00000E+00 1.17647E+01
 -1       115 0.00000E+00 0.00000E+00 1.76471E+01
 -1       116 0.00000E+00 0.00000E+00 2.35294E+01
 -1       117 0.00000E+00 0.00000E+00 2.94118E+01
 -1       118 0.00000E+00 0.00000E+00 3.52941E+01
 -1       119 0.00000E+00 0.00000E+00 4.11765E+01
 -1       120 0.00000E+00 0.00000E+00 4.70588E+01
 -1       121 0.00000E+00 0.00000E+00 5.29412E+01
 -1       122 0.00000E+00 0.00000E+00 5.88235E+01
 -1       123 0.00000E+00 0.00000E+00 6.47059E+01
 -1       124 0.00000E+00 0.00000E+00 7.05882E+01
 -1       125 0.00000E+00 0.00000E+00 7.64706E+01
 -1       126 0.00000E+00 0.00000E+00 8.23529E+01
 -1       127 0.00000E+00 0.00000E+00 8.82353E+01
 -1       128 0.00000E+00 0.00000E+00 9.41176E+01
 -1       129 0.00000E+00 1.61000E+00 5.88235E+00
 -1       130 0.00000E+00 1.61000E+00 1.17647E+01
 -1       131 0.00000E+00 1.61000E+00 1.76471E+01
 -1       132 0.00000E+00 1.61000E+00 2.35294E+01
 -1       133 0.00000E+00 1.61000E+00 2.94118E+01
 -1       134 0.00000E+00 1.61000E+00 3.52941E+01
 -1       135 0.00000E+00 1.61000E+00 4.11765E+01
 -1       136 0.00000E+00 1.61000E+00 4.70588E+01
 -1       137 0.00000E+00 1.61000E+00 5.29412E+01
 -1       138 0.00000E+00 1.61000E+00 5.88235E+01
 -1       139 0.00000E+00 1.61000E+00 6.47059E+01
 -1       140 0.00000E+00 1.61000E+00 7.05882E+01
 -1       141 0.00000E+00 1.61000E+00 7.64706E+01
 -1       142 0.00000E+00 1.61000E+00 8.23529E+01
 -1       143 0.00000E+00 1.61000E+00 8.82353E+01
 -1       144 0.00000E+00 1.61000E+00 9.41176E+01
 -1       145 6.00000E+00 0.00000E+00 0.00000E+00
 -1       146 1.20000E+01 0.00000E+00 0.00000E+00
 -1       147 1.80000E+01 0.00000E+00 0.00000E+00
 -1       148 2.40000E+01 0.00000E+00 0.00000E+00
 -1       149 3.00000E+01 0.00000E+00 0.00000E+00
 -1       150 3.60000E+01 0.00000E+00 0.00000E+00
 -1       151 4.20000E+01 0.00000E+00 0.00000E+00
 -1       152 4.80000E+01 0.00000E+00 0.00000E+00
 -1       153 5.40000E+01 0.00000E+00 0.00000E+00
 -1       154 6.00000E+01 0.00000E+00 0.00000E+00
 -1       155 6.60000E+01 0.00000E+00 0.00000E+00
 -1       156 7.20000E+01 0.00000E+00 0.00000E+00
 -1       157 7.80000E+01 0.00000E+00 0.00000E+00
 -1       158 8.40000E+01 0.00000E+00 0.00000E+00
 -1       159 9.00000E+01 0.00000E+00 0.00000E+00
 -1       160 9.60000E+01 0.00000E+00 0.00000E+00
 -1       161 1.02000E+02 0.00000E+00 0.00000E+00
 -1       162 1.08000E+02 0.00000E+00 0.00000E+00
 -1       163 1.14000E+02 0.00000E+00 0.00000E+00
 -1       164 1.20000E+02 0.00000E+00 0.00000E+00
 -1       165 1.26000E+02 0.00000E+00 0.00000E+00
 -1       166 1.32000E+02 0.00000E+00 0.00000E+00
 -1       167 1.38000E+02 0.00000E+00 0.00000E+00
 -1       168 1.44000E+02 0.00000E+00 0.00000E+00
 -1       169 1.50000E+02 0.00000E+00 0.00000E+00
 -1       170 1.56000E+02 0.00000E+00 0.00000E+00
 -1       171 1.62000E+02 0.00000E+00 0.00000E+00
 -1       172 1.68000E+02 0.00000E+00 0.00000E+00
 -1       173 1.74000E+02 0.00000E+00 0.00000E+00
 -1       174 1.80000E+02 0.00000E+00 0.00000E+00
 -1       175 1.86000E+02 0.00000E+00 0.00000E+00
 -1       176 1.92000E+02 0.00000E+00 0.00000E+00
 -1       177 1.98000E+02 0.00000E+00 0.00000E+00
 -1       178 2.04000E+02 0.00000E+00 0.00000E+00
 -1       179 2.10000E+02 0.00000E+00 0.00000E+00
 -1       180 2.16000E+02 0.00000E+00 0.00000E+00
 -1       181 2.22000E+02 0.00000E+00 0.00000E+00
 -1       182 2.28000E+02 0.00000E+00 0.00000E+00
 -1       183 2.34000E+02 0.00000E+00 0.00000E+00
 -1       184 2.40000E+02 0.00000E+00 0.00000E+00
 -1       185 2.46000E+02 0.00000E+00 0.00000E+00
 -1       186 2.52000E+02 0.00000E+00 0.00000E+00
 -1       187 2.58000E+02 0.00000E+00 0.00000E+00
 -1       188 2.64000E+02 0.00000E+00 0.00000E+00
 -1       189 2.70000E+02 0.00000E+00 0.00000E+00
 -1       190 2.76000E+02 0.00000E+00 0.00000E+00
 -1       191 2.82000E+02 0.00000E+00 0.00000E+00
 -1       192 2.88000E+02 0.00000E+00 0.00000E+00
 -1       193 2.94000E+02 0.00000E+00 0.00000E+00
 -1       194 3.00000E+02 0.00000E+00 5.88235E+00
 -1       195 3.00000E+02 0.00000E+00 1.17647E+01
 -1       196 3.00000E+02 0.00000E+00 1.76471E+01
 -1       197 3.00000E+02 0.00000E+00 2.35294E+01
 -1       198 3.00000E+02 0.00000E+00 2.94118E+01
 -1       199 3.00000E+02 0.00000E+00 3.52941E+01
 -1       200 3.00000E+02 0.00000E+00 4.11765E+01
 -1       201 3.00000E+02 0.00000E+00 4.70588E+01
 -1       202 3.00000E+02 0.00000E+00 5.29412E+01
 -1       203 3.00000E+02 0.00000E+00 5.88235E+01
 -1       204 3.00000E+02 0.00000E+00 6.47059E+01
 -1       205 3.00000E+02 0.00000E+00 7.05882E+01
 -1       206 3.00000E+02 0.00000E+00 7.64706E+01
 -1       207 3.00000E+02 0.00000E+00 8.23529E+01
 -1       208 3.00000E+02 0.00000E+00 8.82353E+01
 -1       209 3.00000E+02 0.00000E+00 9.41176E+01
 -1       210 6.00000E+00 0.00000E+00 1.00000E+02
 -1       211 1.20000E+01 0.00000E+00 1.00000E+02
 -1       212 1.80000E+01 0.00000E+00 1.00000E+02
 -1       213 2.40000E+01 0.00000E+00 1.00000E+02
 -1       214 3.00000E+01 0.00000E+00 1.00000E+02
 -1       215 3.60000E+01 0.00000E+00 1.00000E+02
 -1       216 4.20000E+01 0.00000E+00 1.00000E+02
 -1       217 4.80000E+01 0.00000E+00 1.00000E+02
 -1       218 5.40000E+01 0.00000E+00 1.00000E+02
 -1       219 6.00000E+01 0.00000E+00 1.00000E+02
 -1       220 6.60000E+01 0.00000E+00 1.00000E+02
 -1       221 7.20000E+01 0.00000E+00 1.00000E+02
 -1       222 7.80000E+01 0.00000E+00 1.00000E+02
 -1       223 8.40000E+01 0.00000E+00 1.00000E+02
 -1       224 9.00000E+01 0.00000E+00 1.00000E+02
 -1       225 9.60000E+01 0.00000E+00 1.00000E+02
 -1       226 1.02000E+02 0.00000E+00 1.00000E+02
 -1       227 1.08000E+02 0.00000E+00 1.00000E+02
 -1       228 1.14000E+02 0.00000E+00 1.00000E+02
 -1       229 1.20000E+02 0.00000E+00 1.00000E+02
 -1       230 1.26000E+02 0.00000E+00 1.00000E+02
 -1       231 1.32000E+02 0.00000E+00 1.00000E+02
 -1       232 1.38000E+02 0.00000E+00 1.00000E+02
 -1       233 1.44000E+02 0.00000E+00 1.00000E+02
 -1       234 1.50000E+02 0.00000E+00 1.00000E+02
 -1       235 1.56000E+02 0.00000E+00 1.00000E+02
 -1       236 1.62000E+02 0.00000E+00 1.00000E+02
 -1       237 1.68000E+02 0.00000E+00 1.00000E+02
 -1       238 1.74000E+02 0.00000E+00 1.00000E+02
 -1       239 1.80000E+02 0.00000E+00 1.00000E+02
 -1       240 1.86000E+02 0.00000E+00 1.00000E+02
 -1       241 1.92000E+02 0.00000E+00 1.00000E+02
 -1       242 1.98000E+02 0.00000E+00 1.00000E+02
 -1       243 2.04000E+02 0.00000E+00 1.00000E+02
 -1       244 2.10000E+02 0.00000E+00 1.00000E+02
 -1       245 2.16000E+02 0.00000E+00 1.00000E+02
 -1       246 2.22000E+02 0.00000E+00 1.00000E+02
 -1       247 2.28000E+02 0.00000E+00 1.00000E+02
 -1       248 2.34000E+02 0.00000E+00 1.00000E+02
 -1       249 2.40000E+02 0.00000E+00 1.00000E+02
 -1       250 2.46000E+02 0.00000E+00 1.00000E+02
 -1       251 2.52000E+02 0.00000E+00 1.00000E+02
 -1       252 2.58000E+02 0.00000E+00 1.00000E+02
 -1       253 2.64000E+02 0.00000E+00 1.00000E+02
 -1       254 2.70000E+02 0.00000E+00 1.00000E+02
 -1       255 2.76000E+02 0.00000E+00 1.00000E+02
 -1       256 2.82000E+02 0.00000E+00 1.00000E+02
 -1       257 2.88000E+02 0.00000E+00 1.00000E+02
 -1       258 2.94000E+02 0.00000E+00 1.00000E+02
 -1       259 1.58000E+02 0.00000E+00 1.56667E+01
 -1       260 1.58000E+02 0.00000E+00 2.03333E+01
 -1       261 1.62667E+02 0.00000E+00 2.50000E+01
 -1       262 1.67333E+02 0.00000E+00 2.50000E+01
 -1       263 1.72000E+02 0.00000E+00 1.56667E+01
 -1       264 1.72000E+02 0.00000E+00 2.03333E+01
 -1       265 1.62667E+02 0.00000E+00 1.10000E+01
 -1       266 1.67333E+02 0.00000E+00 1.10000E+01
 -1       267 3.70000E+01 0.00000E+00 4.73333E+01
 -1       268 3.70000E+01 0.00000E+00 5.26667E+01
 -1       269 4.23333E+01 0.00000E+00 5.80000E+01
 -1       270 4.76667E+01 0.00000E+00 5.80000E+01
 -1       271 5.30000E+01 0.00000E+00 4.73333E+01
 -1       272 5.30000E+01 0.00000E+00 5.26667E+01
 -1       273 4.23333E+01 0.00000E+00 4.20000E+01
 -1       274 4.76667E+01 0.00000E+00 4.20000E+01
 -1       275 6.60000E+01 0.00000E+00 5.00000E+01
 -1       276 7.20000E+01 0.00000E+00 5.60000E+01
 -1       277 7.80000E+01 0.00000E+00 5.00000E+01
 -1       278 7.20000E+01 0.00000E+00 4.40000E+01
 -1       279 8.80000E+01 0.00000E+00 4.40000E+01
 -1       280 8.80000E+01 0.00000E+00 5.00000E+01
 -1       281 8.80000E+01 0.00000E+00 5.60000E+01
 -1       282 9.40000E+01 0.00000E+00 6.20000E+01
 -1       283 1.00000E+02 0.00000E+00 6.20000E+01
 -1       284 1.06000E+02 0.00000E+00 6.20000E+01
 -1       285 1.12000E+02 0.00000E+00 4.40000E+01
 -1       286 1.12000E+02 0.00000E+00 5.00000E+01
 -1       287 1.12000E+02 0.00000E+00 5.60000E+01
 -1       288 9.40000E+01 0.00000E+00 3.80000E+01
 -1       289 1.00000E+02 0.00000E+00 3.80000E+01
 -1       290 1.06000E+02 0.00000E+00 3.80000E+01
 -1       291 1.23000E+02 0.00000E+00 4.76667E+01
 -1       292 1.23000E+02 0.00000E+00 5.23333E+01
 -1       293 1.27667E+02 0.00000E+00 5.70000E+01
 -1       294 1.32333E+02 0.00000E+00 5.70000E+01
 -1       295 1.37000E+02 0.00000E+00 4.76667E+01
 -1       296 1.37000E+02 0.00000E+00 5.23333E+01
 -1       297 1.27667E+02 0.00000E+00 4.30000E+01
 -1       298 1.32333E+02 0.00000E+00 4.30000E+01
 -1       299 1.49000E+02 0.00000E+00 5.00000E+01
 -1       300 1.55000E+02 0.00000E+00 5.60000E+01
 -1       301 1.61000E+02 0.00000E+00 5.00000E+01
 -1       302 1.55000E+02 0.00000E+00 4.40000E+01
 -1       303 1.68000E+02 0.00000E+00 4.40000E+01
 -1       304 1.68000E+02 0.00000E+00 5.00000E+01
 -1       305 1.68000E+02 0.00000E+00 5.60000E+01
 -1       306 1.74000E+02 0.00000E+00 6.20000E+01
 -1       307 1.80000E+02 0.00000E+00 6.20000E+01
 -1       308 1.86000E+02 0.00000E+00 6.20000E+01
 -1       309 1.92000E+02 0.00000E+00 4.40000E+01
 -1       310 1.92000E+02 0.00000E+00 5.00000E+01
 -1       311 1.92000E+02 0.00000E+00 5.60000E+01
 -1       312 1.74000E+02 0.00000E+00 3.80000E+01
 -1       313 1.80000E+02 0.00000E+00 3.80000E+01
 -1       314 1.86000E+02 0.00000E+00 3.80000E+01
 -1       315 1.98000E+02 0.00000E+00 4.70000E+01
 -1       316 1.98000E+02 0.00000E+00 5.30000E+01
 -1       317 2.04000E+02 0.00000E+00 5.90000E+01
 -1       318 2.10000E+02 0.00000E+00 5.90000E+01
 -1       319 2.16000E+02 0.00000E+00 5.90000E+01
 -1       320 2.22000E+02 0.00000E+00 4.70000E+01
 -1       321 2.22000E+02 0.00000E+00 5.30000E+01
 -1       322 2.04000E+02 0.00000E+00 4.10000E+01
 -1       323 2.10000E+02 0.00000E+00 4.10000E+01
 -1       324 2.16000E+02 0.00000E+00 4.10000E+01
 -1       325 2.28000E+02 0.00000E+00 4.70000E+01
 -1       326 2.28000E+02 0.00000E+00 5.30000E+01
 -1       327 2.33500E+02 0.00000E+00 5.90000E+01
 -1       328 2.39000E+02 0.00000E+00 5.90000E+01
 -1       329 2.44500E+02 0.00000E+00 5.90000E+01
 -1       330 2.50000E+02 0.00000E+00 6.43333E+01
 -1       331 2.50000E+02 0.00000E+00 6.96667E+01
 -1       332 2.56000E+02 0.00000E+00 7.50000E+01
 -1       333 2.62000E+02 0.00000E+00 7.50000E+01
 -1       334 2.68000E+02 0.00000E+00 7.50000E+01
 -1       335 2.74000E+02 0.00000E+00 7.50000E+01
 -1       336 2.80000E+02 0.00000E+00 5.10000E+01
 -1       337 2.80000E+02 0.00000E+00 5.70000E+01
 -1       338 2.80000E+02 0.00000E+00 6.30000E+01
 -1       339 2.80000E+02 0.00000E+00 6.90000E+01
 -1       340 2.57600E+02 0.00000E+00 4.50000E+01
 -1       341 2.63200E+02 0.00000E+00 4.50000E+01
 -1       342 2.68800E+02 0.00000E+00 4.50000E+01
 -1       343 2.74400E+02 0.00000E+00 4.50000E+01
 -1       344 2.34000E+02 0.00000E+00 4.10000E+01
 -1       345 2.40000E+02 0.00000E+00 4.10000E+01
 -1       346 2.46000E+02 0.00000E+00 4.10000E+01
 -1       347 2.82000E+02 0.00000E+00 4.73333E+01
 -1       348 2.82000E+02 0.00000E+00 5.26667E+01
 -1       349 2.87333E+02 0.00000E+00 5.80000E+01
 -1       350 2.92667E+02 0.00000E+00 5.80000E+01
 -1       351 2.98000E+02 0.00000E+00 4.73333E+01
 -1       352 2.98000E+02 0.00000E+00 5.26667E+01
 -1       353 2.87333E+02 0.00000E+00 4.20000E+01
 -1       354 2.92667E+02 0.00000E+00 4.20000E+01
 -1       355 6.00000E+00 1.61000E+00 1.00000E+02
 -1       356 1.20000E+01 1.61000E+00 1.00000E+02
 -1       357 1.80000E+01 1.61000E+00 1.00000E+02
 -1       358 2.40000E+01 1.61000E+00 1.00000E+02
 -1       359 3.00000E+01 1.61000E+00 1.00000E+02
 -1       360 3.60000E+01 1.61000E+00 1.00000E+02
 -1       361 4.20000E+01 1.61000E+00 1.00000E+02
 -1       362 4.80000E+01 1.61000E+00 1.00000E+02
 -1       363 5.40000E+01 1.61000E+00 1.00000E+02
 -1       364 6.00000E+01 1.61000E+00 1.00000E+02
 -1       365 6.60000E+01 1.61000E+00 1.00000E+02
 -1       366 7.20000E+01 1.61000E+00 1.00000E+02
 -1       367 7.80000E+01 1.61000E+00 1.00000E+02
 -1       368 8.40000E+01 1.61000E+00 1.00000E+02
 -1       369 9.00000E+01 1.61000E+00 1.00000E+02
 -1       370 9.60000E+01 1.61000E+00 1.00000E+02
 -1       371 1.02000E+02 1.61000E+00 1.00000E+02
 -1       372 1.08000E+02 1.61000E+00 1.00000E+02
 -1       373 1.14000E+02 1.61000E+00 1.00000E+02
 -1       374 1.20000E+02 1.61000E+00 1.00000E+02
 -1       375 1.26000E+02 1.61000E+00 1.00000E+02
 -1       376 1.32000E+02 1.61000E+00 1.00000E+02
 -1       377 1.38000E+02 1.61000E+00 1.00000E+02
 -1       378 1.44000E+02 1.61000E+00 1.00000E+02
 -1       379 1.50000E+02 1.61000E+00 1.00000E+02
 -1       380 1.56000E+02 1.61000E+00 1.00000E+02
 -1       381 1.62000E+02 1.61000E+00 1.00000E+02
 -1       382 1.68000E+02 1.61000E+00 1.00000E+02
 -1       383 1.74000E+02 1.61000E+00 1.00000E+02
 -1       384 1.80000E+02 1.61000E+00 1.00000E+02
 -1       385 1.86000E+02 1.61000E+00 1.00000E+02
 -1       386 1.92000E+02 1.61000E+00 1.00000E+02
 -1       387 1.98000E+02 1.61000E+00 1.00000E+02
 -1       388 2.04000E+02 1.61000E+00 1.00000E+02
 -1       389 2.10000E+02 1.61000E+00 1.00000E+02
 -1       390 2.16000E+02 1.61000E+00 1.00000E+02
 -1       391 2.22000E+02 1.61000E+00 1.00000E+02
 -1       392 2.28000E+02 1.61000E+00 1.00000E+02
 -1       393 2.34000E+02 1.61000E+00 1.00000E+02
 -1       394 2.40000E+02 1.61000E+00 1.00000E+02
 -1       395 2.46000E+02 1.61000E+00 1.00000E+02
 -1       396 2.52000E+02 1.61000E+00 1.00000E+02
 -1       397 2.58000E+02 1.61000E+00 1.00000E+02
 -1       398 2.64000E+02 1.61000E+00 1.00000E+02
 -1       399 2.70000E+02 1.61000E+00 1.00000E+02
 -1       400 2.76000E+02 1.61000E+00 1.00000E+02
 -1       401 2.82000E+02 1.61000E+00 1.00000E+02
 -1       402 2.88000E+02 1.61000E+00 1.00000E+02
 -1       403 2.94000E+02 1.61000E+00 1.00000E+02
 -1       404 6.00000E+00 1.61000E+00 0.00000E+00
 -1       405 1.20000E+01 1.61000E+00 0.00000E+00
 -1       406 1.80000E+01 1.61000E+00 0.00000E+00
 -1       407 2.40000E+01 1.61000E+00 0.00000E+00
 -1       408 3.00000E+01 1.61000E+00 0.00000E+00
 -1       409 3.60000E+01 1.61000E+00 0.00000E+00
 -1       410 4.20000E+01 1.61000E+00 0.00000E+00
 -1       411 4.80000E+01 1.61000E+00 0.00000E+00
 -1       412 5.40000E+01 1.61000E+00 0.00000E+00
 -1       413 6.00000E+01 1.61000E+00 0.00000E+00
 -1       414 6.60000E+01 1.61000E+00 0.00000E+00
 -1       415 7.20000E+01 1.61000E+00 0.00000E+00
 -1       416 7.80000E+01 1.61000E+00 0.00000E+00
 -1       417 8.40000E+01 1.61000E+00 0.00000E+00
 -1       418 9.00000E+01 1.61000E+00 0.00000E+00
 -1       419 9.60000E+01 1.61000E+00 0.00000E+00
 -1       420 1.02000E+02 1.61000E+00 0.00000E+00
 -1       421 1.08000E+02 1.61000E+00 0.00000E+00
 -1       422 1.14000E+02 1.61000E+00 0.00000E+00
 -1       423 1.20000E+02 1.61000E+00 0.00000E+00
 -1       424 1.26000E+02 1.61000E+00 0.00000E+00
 -1       425 1.32000E+02 1.61000E+00 0.00000E+00
 -1       426 1.38000E+02 1.61000E+00 0.00000E+00
 -1       427 1.44000E+02 1.61000E+00 0.00000E+00
 -1       428 1.50000E+02 1.61000E+00 0.00000E+00
 -1       429 1.56000E+02 1.61000E+00 0.00000E+00
 -1       430 1.62000E+02 1.61000E+00 0.00000E+00
 -1       431 1.68000E+02 1.61000E+00 0.00000E+00
 -1       432 1.74000E+02 1.61000E+00 0.00000E+00
 -1       433 1.80000E+02 1.61000E+00 0.00000E+00
 -1       434 1.86000E+02 1.61000E+00 0.00000E+00
 -1       435 1.92000E+02 1.61000E+00 0.00000E+00
 -1       436 1.98000E+02 1.61000E+00 0.00000E+00
 -1       437 2.04000E+02 1.61000E+00 0.00000E+00
 -1       438 2.10000E+02 1.61000E+00 0.00000E+00
 -1       439 2.16000E+02 1.61000E+00 0.00000E+00
 -1       440 2.22000E+02 1.61000E+00 0.00000E+00
 -1       441 2.28000E+02 1.61000E+00 0.00000E+00
 -1       442 2.34000E+02 1.61000E+00 0.00000E+00
 -1       443 2.40000E+02 1.61000E+00 0.00000E+00
 -1       444 2.46000E+02 1.61000E+00 0.00000E+00
 -1       445 2.52000E+02 1.61000E+00 0.00000E+00
 -1       446 2.58000E+02 1.61000E+00 0.00000E+00
 -1       447 2.64000E+02 1.61000E+00 0.00000E+00
 -1       448 2.70000E+02 1.61000E+00 0.00000E+00
 -1       449 2.76000E+02 1.61000E+00 0.00000E+00
 -1       450 2.82000E+02 1.61000E+00 0.00000E+00
 -1       451 2.88000E+02 1.61000E+00 0.00000E+00
 -1       452 2.94000E+02 1.61000E+00 0.00000E+00
 -1       453 3.00000E+02 1.61000E+00 5.88235E+00
 -1       454 3.00000E+02 1.61000E+00 1.17647E+01
 -1       455 3.00000E+02 1.61000E+00 1.76471E+01
 -1       456 3.00000E+02 1.61000E+00 2.35294E+01
 -1       457 3.00000E+02 1.61000E+00 2.94118E+01
 -1       458 3.00000E+02 1.61000E+00 3.52941E+01
 -1       459 3.00000E+02 1.61000E+00 4.11765E+01
 -1       460 3.00000E+02 1.61000E+00 4.70588E+01
 -1       461 3.00000E+02 1.61000E+00 5.29412E+01
 -1       462 3.00000E+02 1.61000E+00 5.88235E+01
 -1       463 3.00000E+02 1.61000E+00 6.47059E+01
 -1       464 3.00000E+02 1.61000E+00 7.05882E+01
 -1       465 3.00000E+02 1.61000E+00 7.64706E+01
 -1       466 3.00000E+02 1.61000E+00 8.23529E+01
 -1       467 3.00000E+02 1.61000E+00 8.82353E+01
 -1       468 3.00000E+02 1.61000E+00 9.41176E+01
 -1       469 1.58000E+02 1.61000E+00 1.56667E+01
 -1       470 1.58000E+02 1.61000E+00 2.03333E+01
 -1       471 1.62667E+02 1.61000E+00 2.50000E+01
 -1       472 1.67333E+02 1.61000E+00 2.50000E+01
 -1       473 1.72000E+02 1.61000E+00 1.56667E+01
 -1       474 1.72000E+02 1.61000E+00 2.03333E+01
 -1       475 1.62667E+02 1.61000E+00 1.10000E+01
 -1       476 1.67333E+02 1.61000E+00 1.10000E+01
 -1       477 3.70000E+01 1.61000E+00 4.73333E+01
 -1       478 3.70000E+01 1.61000E+00 5.26667E+01
 -1       479 4.23333E+01 1.61000E+00 5.80000E+01
 -1       480 4.76667E+01 1.61000E+00 5.80000E+01
 -1       481 5.30000E+01 1.61000E+00 4.73333E+01
 -1       482 5.30000E+01 1.61000E+00 5.26667E+01
 -1       483 4.23333E+01 1.61000E+00 4.20000E+01
 -1       484 4.76667E+01 1.61000E+00 4.20000E+01
 -1       485 6.60000E+01 1.61000E+00 5.00000E+01
 -1       486 7.20000E+01 1.61000E+00 5.60000E+01
 -1       487 7.80000E+01 1.61000E+00 5.00000E+01
 -1       488 7.20000E+01 1.61000E+00 4.40000E+01
 -1       489 8.80000E+01 1.61000E+00 4.40000E+01
 -1       490 8.80000E+01 1.61000E+00 5.00000E+01
 -1       491 8.80000E+01 1.61000E+00 5.60000E+01
 -1       492 9.40000E+01 1.61000E+00 6.20000E+01
 -1       493 1.00000E+02 1.61000E+00 6.20000E+01
 -1       494 1.06000E+02 1.61000E+00 6.20000E+01
 -1       495 1.12000E+02 1.61000E+00 4.40000E+01
 -1       496 1.12000E+02 1.61000E+00 5.00000E+01
 -1       497 1.12000E+02 1.61000E+00 5.60000E+01
 -1       498 9.40000E+01 1.61000E+00 3.80000E+01
 -1       499 1.00000E+02 1.61000E+00 3.80000E+01
 -1       500 1.06000E+02 1.61000E+00 3.80000E+01
 -1       501 1.23000E+02 1.61000E+00 4.76667E+01
 -1       502 1.23000E+02 1.61000E+00 5.23333E+01
 -1       503 1.27667E+02 1.61000E+00 5.70000E+01
 -1       504 1.32333E+02 1.61000E+00 5.70000E+01
 -1       505 1.37000E+02 1.61000E+00 4.76667E+01
 -1       506 1.37000E+02 1.61000E+00 5.23333E+01
 -1       507 1.27667E+02 1.61000E+00 4.30000E+01
 -1       508 1.32333E+02 1.61000E+00 4.30000E+01
 -1       509 1.49000E+02 1.61000E+00 5.00000E+01
 -1       510 1.55000E+02 1.61000E+00 5.60000E+01
 -1       511 1.61000E+02 1.61000E+00 5.00000E+01
 -1       512 1.55000E+02 1.61000E+00 4.40000E+01
 -1       513 1.68000E+02 1.61000E+00 4.40000E+01
 -1       514 1.68000E+02 1.61000E+00 5.00000E+01
 -1       515 1.68000E+02 1.61000E+00 5.60000E+01
 -1       516 1.74000E+02 1.61000E+00 6.20000E+01
 -1       517 1.80000E+02 1.61000E+00 6.20000E+01
 -1       518 1.86000E+02 1.61000E+00 6.20000E+01
 -1       519 1.92000E+02 1.61000E+00 4.40000E+01
 -1       520 1.92000E+02 1.61000E+00 5.00000E+01
 -1       521 1.92000E+02 1.61000E+00 5.60000E+01
 -1       522 1.74000E+02 1.61000E+00 3.80000E+01
 -1       523 1.80000E+02 1.61000E+00 3.80000E+01
 -1       524 1.86000E+02 1.61000E+00 3.80000E+01
 -1       525 1.98000E+02 1.61000E+00 4.70000E+01
 -1       526 1.98000E+02 1.61000E+00 5.30000E+01
 -1       527 2.04000E+02 1.61000E+00 5.90000E+01
 -1       528 2.10000E+02 1.61000E+00 5.90000E+01
 -1       529 2.16000E+02 1.61000E+00 5.90000E+01
 -1       530 2.22000E+02 1.61000E+00 4.70000E+01
 -1       531 2.22000E+02 1.61000E+00 5.30000E+01
 -1       532 2.04000E+02 1.61000E+00 4.10000E+01
 -1       533 2.10000E+02 1.61000E+00 4.10000E+01
 -1       534 2.16000E+02 1.61000E+00 4.10000E+01
 -1       535 2.28000E+02 1.61000E+00 4.70000E+01
 -1       536 2.28000E+02 1.61000E+00 5.30000E+01
 -1       537 2.33500E+02 1.61000E+00 5.90000E+01
 -1       538 2.39000E+02 1.61000E+00 5.90000E+01
 -1       539 2.44500E+02 1.61000E+00 5.90000E+01
 -1       540 2.50000E+02 1.61000E+00 6.43333E+01
 -1       541 2.50000E+02 1.61000E+00 6.96667E+01
 -1       542 2.56000E+02 1.61000E+00 7.50000E+01
 -1       543 2.62000E+02 1.61000E+00 7.50000E+01
 -1       544 2.68000E+02 1.61000E+00 7.50000E+01
 -1       545 2.74000E+02 1.61000E+00 7.50000E+01
 -1       546 2.80000E+02 1.61000E+00 5.10000E+01
 -1       547 2.80000E+02 1.61000E+00 5.70000E+01
 -1       548 2.80000E+02 1.61000E+00 6.30000E+01
 -1       549 2.80000E+02 1.61000E+00 6.90000E+01
 -1       550 2.57600E+02 1.61000E+00 4.50000E+01
 -1       551 2.63200E+02 1.61000E+00 4.50000E+01
 -1       552 2.68800E+02 1.61000E+00 4.50000E+01
 -1       553 2.74400E+02 1.61000E+00 4.50000E+01
 -1       554 2.34000E+02 1.61000E+00 4.10000E+01
 -1       555 2.40000E+02 1.61000E+00 4.10000E+01
 -1       556 2.46000E+02 1.61000E+00 4.10000E+01
 -1       557 2.82000E+02 1.61000E+00 4.73333E+01
 -1       558 2.82000E+02 1.61000E+00 5.26667E+01
 -1       559 2.87333E+02 1.61000E+00 5.80000E+01
 -1       560 2.92667E+02 1.61000E+00 5.80000E+01
 -1       561 2.98000E+02 1.61000E+00 4.73333E+01
 -1       562 2.98000E+02 1.61000E+00 5.26667E+01
 -1       563 2.87333E+02 1.61000E+00 4.20000E+01
 -1       564 2.92667E+02 1.61000E+00 4.20000E+01
 -1       565 2.50000E+02 0.00000E+00 4.96667E+01
 -1       566 2.50000E+02 0.00000E+00 5.43333E+01
 -1       567 2.50000E+02 1.61000E+00 4.96667E+01
 -1       568 2.50000E+02 1.61000E+00 5.43333E+01
 -1       569 2.52000E+02 0.00000E+00 4.96667E+01
 -1       570 2.52000E+02 0.00000E+00 5.43333E+01
 -1       571 2.52000E+02 1.61000E+00 4.96667E+01
 -1       572 2.52000E+02 1.61000E+00 5.43333E+01
 -1       573 0.00000E+00 5.61000E+00 1.00000E+02
 -1       574 0.00000E+00 9.61000E+00 5.88235E+00
 -1       575 0.00000E+00 9.61000E+00 1.17647E+01
 -1       576 0.00000E+00 9.61000E+00 1.76471E+01
 -1       577 0.00000E+00 9.61000E+00 2.35294E+01
 -1       578 0.00000E+00 9.61000E+00 2.94118E+01
 -1       579 0.00000E+00 9.61000E+00 3.52941E+01